version 3
run General-0-20240417-13:40:30-55944
attr configname General
attr datetime 20240417-13:40:30
attr datetimef 20240417-134030
attr experiment General
attr inifile omnetpp.ini
attr iterationvars ""
attr iterationvarsd ""
attr iterationvarsf ""
attr measurement ""
attr network wGptpPcapRecorder
attr processid 55944
attr repetition 0
attr replication #0
attr resultdir results
attr runnumber 0
attr seedset 0
config debug-on-errors true
config image-path ../../../inet4.5/images
config network wGptpPcapRecorder
config total-stack 7MiB
config *.host1.numWlanInterfaces 1
config *.host2.numWlanInterfaces 1
config *.host*.wlan[*].typename Ieee80211Interface
config *.host*.wlan[*].mgmt.typename Ieee80211MgmtAdhoc
config *.host*.wlan[*].agent.typename ""
config *.host1.gptp.masterPorts "[\"wlan0\"]"
config *.host2.gptp.slavePort "\"wlan0\""
config **.gptp.*.vector-recording true
config *.host1.numPcapRecorders 1
config *.host2.numPcapRecorders 1
config **.pcapRecorder[*].alwaysFlush true
config **.crcMode "\"computed\""
config **.fcsMode "\"computed\""
config **.host1.clock.typename OscillatorBasedClock
config **.host1.clock.oscillator.typename RandomDriftOscillator
config **.oscillator.changeInterval 12.5ms
config **.oscillator.driftRate "uniform(-100ppm, 100ppm)"
config **.oscillator.driftRateChange "uniform(-1ppm, 1ppm)"
config **.oscillator.driftRateChangeUpperLimit 100ppm
config **.oscillator.driftRateChangeLowerLimit -100ppm
config **.referenceClock "\"host1.clock\""
config *.host2.numApps 1
config *.host2.app[*].typename TcpEchoApp
config *.host2.app[0].localPort 1000
config *.host2.app[0].echoFactor 2.0
config *.host2.app[0].echoDelay 0s

vector 0 wGptpPcapRecorder.host1.wlan[0].mac.dcf frameSequenceActive:vector ETV
attr autoWarmupFilter false
attr interpolationmode sample-hold
attr recordingmode vector
attr source warmup(count(frameSequenceStarted)-count(frameSequenceFinished))
attr title "frame sequence active"
vector 1 wGptpPcapRecorder.host1.wlan[0].mac.dcf.channelAccess.pendingQueue queueLength:vector ETV
attr autoWarmupFilter false
attr interpolationmode sample-hold
attr recordingmode vector
attr source "warmup(atomic(constant0(packetPushEnded) + count(packetPushStarted) - count(packetPulled) - count(packetRemoved) - count(packetDropped)))"
attr title "queue length"
attr unit pk
vector 2 wGptpPcapRecorder.host1.wlan[0].mac.dcf.channelAccess.pendingQueue queueBitLength:vector ETV
attr autoWarmupFilter false
attr interpolationmode sample-hold
attr recordingmode vector
attr source "warmup(atomic(constant0(packetPushEnded) + sum(packetLength(packetPushStarted)) - sum(packetLength(packetPulled)) - sum(packetLength(packetRemoved)) - sum(packetLength(packetDropped))))"
attr title "queue bit length"
attr unit b
vector 3 wGptpPcapRecorder.host1.wlan[0].mac.dcf.channelAccess.inProgressFrames queueLength:vector ETV
attr autoWarmupFilter false
attr interpolationmode sample-hold
attr recordingmode vector
attr source "warmup(count(packetEnqueued) - count(packetDequeued))"
attr title "queue length"
vector 4 wGptpPcapRecorder.host1.wlan[0].mac.dcf.channelAccess.contention backoffActive:vector ETV
attr autoWarmupFilter false
attr interpolationmode sample-hold
attr recordingmode vector
attr source warmup(count(backoffStarted)-count(backoffStopped))
attr title "backoff active"
vector 5 wGptpPcapRecorder.host1.udp passedUpPk:vector(count) ETV
attr interpolationmode none
attr recordingmode vector(count)
attr source packetSentToUpper
attr title "packets passed up, count"
vector 6 wGptpPcapRecorder.host1.udp droppedPkWrongPort:vector(count) ETV
attr interpolationmode none
attr recordingmode vector(count)
attr source packetDropReasonIsNoPortFound(packetDropped)
attr title "packets dropped (wrong port), count"
vector 7 wGptpPcapRecorder.host1.udp droppedPkBadChecksum:vector(count) ETV
attr interpolationmode none
attr recordingmode vector(count)
attr source packetDropReasonIsIncorrectlyReceived(packetDropped)
attr title "packets dropped (checksum error), count"
vector 8 wGptpPcapRecorder.host2.wlan[0].mac.dcf frameSequenceActive:vector ETV
attr autoWarmupFilter false
attr interpolationmode sample-hold
attr recordingmode vector
attr source warmup(count(frameSequenceStarted)-count(frameSequenceFinished))
attr title "frame sequence active"
vector 9 wGptpPcapRecorder.host2.wlan[0].mac.dcf.channelAccess.pendingQueue queueLength:vector ETV
attr autoWarmupFilter false
attr interpolationmode sample-hold
attr recordingmode vector
attr source "warmup(atomic(constant0(packetPushEnded) + count(packetPushStarted) - count(packetPulled) - count(packetRemoved) - count(packetDropped)))"
attr title "queue length"
attr unit pk
vector 10 wGptpPcapRecorder.host2.wlan[0].mac.dcf.channelAccess.pendingQueue queueBitLength:vector ETV
attr autoWarmupFilter false
attr interpolationmode sample-hold
attr recordingmode vector
attr source "warmup(atomic(constant0(packetPushEnded) + sum(packetLength(packetPushStarted)) - sum(packetLength(packetPulled)) - sum(packetLength(packetRemoved)) - sum(packetLength(packetDropped))))"
attr title "queue bit length"
attr unit b
vector 11 wGptpPcapRecorder.host2.wlan[0].mac.dcf.channelAccess.inProgressFrames queueLength:vector ETV
attr autoWarmupFilter false
attr interpolationmode sample-hold
attr recordingmode vector
attr source "warmup(count(packetEnqueued) - count(packetDequeued))"
attr title "queue length"
vector 12 wGptpPcapRecorder.host2.wlan[0].mac.dcf.channelAccess.contention backoffActive:vector ETV
attr autoWarmupFilter false
attr interpolationmode sample-hold
attr recordingmode vector
attr source warmup(count(backoffStarted)-count(backoffStopped))
attr title "backoff active"
vector 13 wGptpPcapRecorder.host2.udp passedUpPk:vector(count) ETV
attr interpolationmode none
attr recordingmode vector(count)
attr source packetSentToUpper
attr title "packets passed up, count"
vector 14 wGptpPcapRecorder.host2.udp droppedPkWrongPort:vector(count) ETV
attr interpolationmode none
attr recordingmode vector(count)
attr source packetDropReasonIsNoPortFound(packetDropped)
attr title "packets dropped (wrong port), count"
vector 15 wGptpPcapRecorder.host2.udp droppedPkBadChecksum:vector(count) ETV
attr interpolationmode none
attr recordingmode vector(count)
attr source packetDropReasonIsIncorrectlyReceived(packetDropped)
attr title "packets dropped (checksum error), count"
vector 16 wGptpPcapRecorder.host1.wlan[0].radio radioMode:vector ETV
attr interpolationmode sample-hold
attr recordingmode vector
attr source radioModeChanged
attr title "Radio mode"
vector 17 wGptpPcapRecorder.host1.wlan[0].radio radioChannel:vector ETV
attr interpolationmode sample-hold
attr recordingmode vector
attr source radioChannelChanged
attr title "Radio channel"
vector 18 wGptpPcapRecorder.host2.wlan[0].radio radioMode:vector ETV
attr interpolationmode sample-hold
attr recordingmode vector
attr source radioModeChanged
attr title "Radio mode"
vector 19 wGptpPcapRecorder.host2.wlan[0].radio radioChannel:vector ETV
attr interpolationmode sample-hold
attr recordingmode vector
attr source radioChannelChanged
attr title "Radio channel"
vector 20 wGptpPcapRecorder.host1.wlan[0].radio receptionState:vector ETV
attr interpolationmode sample-hold
attr recordingmode vector
attr source receptionStateChanged
attr title "Radio reception state"
vector 21 wGptpPcapRecorder.host1.wlan[0].mac.dcf.channelAccess.contention stateChanged:vector ETV
attr enum IDLE,DEFER,IFS_AND_BACKOFF
attr interpolationmode none
attr recordingmode vector
attr title "contention state changed"
attr type enum
vector 22 wGptpPcapRecorder.host2.wlan[0].radio receptionState:vector ETV
attr interpolationmode sample-hold
attr recordingmode vector
attr source receptionStateChanged
attr title "Radio reception state"
vector 23 wGptpPcapRecorder.host2.wlan[0].mac.dcf.channelAccess.contention stateChanged:vector ETV
attr enum IDLE,DEFER,IFS_AND_BACKOFF
attr interpolationmode none
attr recordingmode vector
attr title "contention state changed"
attr type enum
vector 24 wGptpPcapRecorder.host1.clock timeChanged:vector ETV
attr interpolationmode linear
attr recordingmode vector
attr title "Clock time"
vector 25 wGptpPcapRecorder.host1.wlan[0].mac.dcf.recoveryProcedure contentionWindowChanged:vector ETV
attr interpolationmode sample-hold
attr recordingmode vector
attr title "contention window"
vector 26 wGptpPcapRecorder.host2.clock timeChanged:vector ETV
attr interpolationmode linear
attr recordingmode vector
attr title "Clock time"
vector 27 wGptpPcapRecorder.host2.wlan[0].mac.dcf.recoveryProcedure contentionWindowChanged:vector ETV
attr interpolationmode sample-hold
attr recordingmode vector
attr title "contention window"
vector 28 wGptpPcapRecorder.host2.wlan[0].mac packetReceivedFromUpper:vector(packetBytes) ETV
attr interpolationmode none
attr recordingmode vector(packetBytes)
attr title "packets received from upper layer, packetBytes"
vector 29 wGptpPcapRecorder.host2.wlan[0].mac.dcf.channelAccess.pendingQueue incomingPacketLengths:vector ETV
attr interpolationmode none
attr recordingmode vector
attr source packetLength(packetPushStarted)
attr title "incoming packet lengths"
attr unit b
vector 30 wGptpPcapRecorder.host2.wlan[0].mac.dcf.channelAccess.contention backoffPeriodGenerated:vector ETV
attr interpolationmode none
attr recordingmode vector
attr title "backoff periods"
vector 31 wGptpPcapRecorder.host2.wlan[0].mac.dcf.channelAccess.pendingQueue queueingTime:vector ETV
attr interpolationmode none
attr recordingmode vector
attr source queueingTime(packetPulled)
attr title "queueing times"
attr unit s
vector 32 wGptpPcapRecorder.host2.wlan[0].mac.dcf.channelAccess.pendingQueue outgoingPacketLengths:vector ETV
attr interpolationmode none
attr recordingmode vector
attr source packetLength(packetPulled)
attr title "outgoing packet lengths"
attr unit b
vector 33 wGptpPcapRecorder.host2.wlan[0].mac.dcf datarateSelected:vector ETV
attr interpolationmode none
attr recordingmode vector
attr title "datarates selected"
vector 34 wGptpPcapRecorder.host2.wlan[0].mac packetSentToLower:vector(packetBytes) ETV
attr interpolationmode none
attr recordingmode vector(packetBytes)
attr title "packets sent to lower layer, packetBytes"
vector 35 wGptpPcapRecorder.host2.wlan[0].radio transmissionState:vector ETV
attr interpolationmode sample-hold
attr recordingmode vector
attr source transmissionStateChanged
attr title "Radio transmission state"
vector 36 wGptpPcapRecorder.host2.wlan[0].mac.dcf packetSentToPeer:vector(packetBytes) ETV
attr interpolationmode none
attr recordingmode vector(packetBytes)
attr title "packets sent, packetBytes"
vector 37 wGptpPcapRecorder.host2.wlan[0].mac.dcf packetSentToPeerMulticast:vector(packetBytes) ETV
attr interpolationmode none
attr recordingmode vector(packetBytes)
attr source ieee80211Multicast(packetSentToPeer)
attr title "packets sent: multicast, packetBytes"
vector 38 wGptpPcapRecorder.host2.wlan[0].mac.dcf packetSentToPeerWithoutRetry:vector(packetBytes) ETV
attr interpolationmode none
attr recordingmode vector(packetBytes)
attr source ieee80211NotRetry(packetSentToPeer)
attr title "packets sent: without retry, packetBytes"
vector 39 wGptpPcapRecorder.host2.wlan[0].mac.dcf.channelAccess.inProgressFrames queueingTime:vector ETV
attr interpolationmode none
attr recordingmode vector
attr source queueingTime(packetDequeued)
attr title "queueing times"
vector 40 wGptpPcapRecorder.host1.wlan[0].mac packetReceivedFromLower:vector(packetBytes) ETV
attr interpolationmode none
attr recordingmode vector(packetBytes)
attr title "packets received from lower layer, packetBytes"
vector 41 wGptpPcapRecorder.host1.wlan[0].mac.dcf packetReceivedFromPeer:vector(packetBytes) ETV
attr interpolationmode none
attr recordingmode vector(packetBytes)
attr title "packets received, packetBytes"
vector 42 wGptpPcapRecorder.host1.wlan[0].mac.dcf packetReceivedFromPeerMulticast:vector(packetBytes) ETV
attr interpolationmode none
attr recordingmode vector(packetBytes)
attr source ieee80211Multicast(packetReceivedFromPeer)
attr title "packets received: multicast, packetBytes"
vector 43 wGptpPcapRecorder.host1.wlan[0].mac.dcf packetReceivedFromPeerWithoutRetry:vector(packetBytes) ETV
attr interpolationmode none
attr recordingmode vector(packetBytes)
attr source ieee80211NotRetry(packetReceivedFromPeer)
attr title "packets received: without retry, packetBytes"
vector 44 wGptpPcapRecorder.host1.wlan[0].mac packetSentToUpper:vector(packetBytes) ETV
attr interpolationmode none
attr recordingmode vector(packetBytes)
attr title "packets sent to upper layer, packetBytes"
vector 45 wGptpPcapRecorder.host1.wlan[0].mac packetReceivedFromUpper:vector(packetBytes) ETV
attr interpolationmode none
attr recordingmode vector(packetBytes)
attr title "packets received from upper layer, packetBytes"
vector 46 wGptpPcapRecorder.host1.wlan[0].mac.dcf.channelAccess.pendingQueue incomingPacketLengths:vector ETV
attr interpolationmode none
attr recordingmode vector
attr source packetLength(packetPushStarted)
attr title "incoming packet lengths"
attr unit b
vector 47 wGptpPcapRecorder.host1.wlan[0].mac.dcf.channelAccess.contention backoffPeriodGenerated:vector ETV
attr interpolationmode none
attr recordingmode vector
attr title "backoff periods"
vector 48 wGptpPcapRecorder.host1.wlan[0].mac.dcf.channelAccess.pendingQueue queueingTime:vector ETV
attr interpolationmode none
attr recordingmode vector
attr source queueingTime(packetPulled)
attr title "queueing times"
attr unit s
vector 49 wGptpPcapRecorder.host1.wlan[0].mac.dcf.channelAccess.pendingQueue outgoingPacketLengths:vector ETV
attr interpolationmode none
attr recordingmode vector
attr source packetLength(packetPulled)
attr title "outgoing packet lengths"
attr unit b
vector 50 wGptpPcapRecorder.host1.wlan[0].mac.dcf datarateSelected:vector ETV
attr interpolationmode none
attr recordingmode vector
attr title "datarates selected"
vector 51 wGptpPcapRecorder.host1.wlan[0].mac packetSentToLower:vector(packetBytes) ETV
attr interpolationmode none
attr recordingmode vector(packetBytes)
attr title "packets sent to lower layer, packetBytes"
vector 52 wGptpPcapRecorder.host1.wlan[0].radio transmissionState:vector ETV
attr interpolationmode sample-hold
attr recordingmode vector
attr source transmissionStateChanged
attr title "Radio transmission state"
vector 53 wGptpPcapRecorder.host1.wlan[0].mac.dcf packetSentToPeer:vector(packetBytes) ETV
attr interpolationmode none
attr recordingmode vector(packetBytes)
attr title "packets sent, packetBytes"
vector 54 wGptpPcapRecorder.host1.wlan[0].mac.dcf packetSentToPeerMulticast:vector(packetBytes) ETV
attr interpolationmode none
attr recordingmode vector(packetBytes)
attr source ieee80211Multicast(packetSentToPeer)
attr title "packets sent: multicast, packetBytes"
vector 55 wGptpPcapRecorder.host1.wlan[0].mac.dcf packetSentToPeerWithoutRetry:vector(packetBytes) ETV
attr interpolationmode none
attr recordingmode vector(packetBytes)
attr source ieee80211NotRetry(packetSentToPeer)
attr title "packets sent: without retry, packetBytes"
vector 56 wGptpPcapRecorder.host1.wlan[0].mac.dcf.channelAccess.inProgressFrames queueingTime:vector ETV
attr interpolationmode none
attr recordingmode vector
attr source queueingTime(packetDequeued)
attr title "queueing times"
vector 57 wGptpPcapRecorder.host2.wlan[0].mac packetReceivedFromLower:vector(packetBytes) ETV
attr interpolationmode none
attr recordingmode vector(packetBytes)
attr title "packets received from lower layer, packetBytes"
vector 58 wGptpPcapRecorder.host2.wlan[0].mac.dcf packetReceivedFromPeer:vector(packetBytes) ETV
attr interpolationmode none
attr recordingmode vector(packetBytes)
attr title "packets received, packetBytes"
vector 59 wGptpPcapRecorder.host2.wlan[0].mac.dcf packetReceivedFromPeerMulticast:vector(packetBytes) ETV
attr interpolationmode none
attr recordingmode vector(packetBytes)
attr source ieee80211Multicast(packetReceivedFromPeer)
attr title "packets received: multicast, packetBytes"
vector 60 wGptpPcapRecorder.host2.wlan[0].mac.dcf packetReceivedFromPeerWithoutRetry:vector(packetBytes) ETV
attr interpolationmode none
attr recordingmode vector(packetBytes)
attr source ieee80211NotRetry(packetReceivedFromPeer)
attr title "packets received: without retry, packetBytes"
vector 61 wGptpPcapRecorder.host2.wlan[0].mac packetSentToUpper:vector(packetBytes) ETV
attr interpolationmode none
attr recordingmode vector(packetBytes)
attr title "packets sent to upper layer, packetBytes"
vector 62 wGptpPcapRecorder.host2.gptp peerDelay:vector ETV
attr interpolationmode sample-hold
attr recordingmode vector
vector 63 wGptpPcapRecorder.host1.clock.oscillator driftRateChanged:vector ETV
attr interpolationmode sample-hold
attr recordingmode vector
attr title "Oscillator drift rate"
attr unit ppm
vector 64 wGptpPcapRecorder.host1.wlan[0].mac.dcf.channelAccess.pendingQueue incomingDataRate:vector ETV
attr interpolationmode linear
attr recordingmode vector
attr source throughput(packetPushStarted)
attr title "incoming datarate"
attr unit bps
vector 65 wGptpPcapRecorder.host1.wlan[0].mac.dcf.channelAccess.pendingQueue outgoingDataRate:vector ETV
attr interpolationmode linear
attr recordingmode vector
attr source throughput(packetPulled)
attr title "outgoing datarate"
attr unit bps
vector 66 wGptpPcapRecorder.host2.gptp timeDifference:vector ETV
attr interpolationmode linear
attr recordingmode vector
vector 67 wGptpPcapRecorder.host2.gptp rateRatio:vector ETV
attr interpolationmode sample-hold
attr recordingmode vector
vector 68 wGptpPcapRecorder.host2.gptp localTime:vector ETV
attr interpolationmode linear
attr recordingmode vector
vector 69 wGptpPcapRecorder.host2.wlan[0].mac.dcf.channelAccess.pendingQueue incomingDataRate:vector ETV
attr interpolationmode linear
attr recordingmode vector
attr source throughput(packetPushStarted)
attr title "incoming datarate"
attr unit bps
vector 70 wGptpPcapRecorder.host2.wlan[0].mac.dcf.channelAccess.pendingQueue outgoingDataRate:vector ETV
attr interpolationmode linear
attr recordingmode vector
attr source throughput(packetPulled)
attr title "outgoing datarate"
attr unit bps
0	0	0	0
0	0	0	0
0	20	0.000479334256	1
0	24	0.000537334256	0
0	33	0.000967334256	1
0	37	0.001025334256	0
0	60	0.125000006452	1
0	64	0.125054006452	0
0	73	0.125244006452	1
0	77	0.125310006452	0
0	99	0.250000019116	1
0	103	0.250054019116	0
0	112	0.250424019116	1
0	116	0.250490019116	0
0	137	0.374999811201	1
0	142	0.375053811201	0
0	151	0.375683811201	1
0	155	0.375749811201	0
0	176	0.499999272176	1
0	181	0.500053272176	0
0	190	0.500303272176	1
0	194	0.500369272176	0
0	215	0.624998713906	1
0	220	0.625052713906	0
0	229	0.625182713906	1
0	233	0.625248713906	0
0	254	0.749998311974	1
0	259	0.750052311974	0
0	268	0.750722311974	1
0	272	0.750788311974	0
0	293	0.874997725212	1
0	298	0.875051725212	0
0	307	0.875461725212	1
0	311	0.875527725212	0
0	350	1.000180357702	1
0	354	1.000234357702	0
0	363	1.000364357702	1
0	367	1.000422357702	0
0	376	1.000772357702	1
0	380	1.000838357702	0
0	387	1.001508357702	1
0	391	1.001566357702	0
0	415	1.124996662281	1
0	420	1.125050662281	0
0	429	1.125560662281	1
0	433	1.125626662281	0
0	454	1.249996204196	1
0	459	1.250050204196	0
0	468	1.250200204196	1
0	472	1.250266204196	0
0	493	1.374995756067	1
0	498	1.375049756067	0
0	507	1.375359756067	1
0	511	1.375425756067	0
0	532	1.499995231697	1
0	537	1.500049231697	0
0	546	1.500559231697	1
0	550	1.500625231697	0
0	571	1.62499483628	1
0	576	1.62504883628	0
0	585	1.62515883628	1
0	589	1.62522483628	0
0	610	1.749994414435	1
0	615	1.750048414435	0
0	624	1.750318414435	1
0	628	1.750384414435	0
0	649	1.874994084495	1
0	654	1.875048084495	0
0	663	1.875298084495	1
0	667	1.875364084495	0
0	702	1.998834148998	1
0	706	1.998892148998	0
0	715	1.998982148998	1
0	719	1.999040148998	0
0	729	1.99999395467	1
0	734	2.00004795467	0
0	743	2.00041795467	1
0	747	2.00048395467	0
0	771	2.124993776467	1
0	776	2.125047776467	0
0	785	2.125677776467	1
0	789	2.125743776467	0
0	810	2.249993331296	1
0	815	2.250047331296	0
0	824	2.250317331296	1
0	828	2.250383331296	0
0	849	2.374992645435	1
0	854	2.375046645435	0
0	863	2.375516645435	1
0	867	2.375582645435	0
0	888	2.499991699971	1
0	893	2.500045699971	0
0	902	2.500715699971	1
0	906	2.500781699971	0
0	927	2.624990908626	1
0	932	2.625044908626	0
0	941	2.625214908626	1
0	945	2.625280908626	0
0	966	2.749990156758	1
0	971	2.750044156758	0
0	980	2.750454156758	1
0	984	2.750520156758	0
0	1005	2.87498932209	1
0	1010	2.87504332209	0
0	1019	2.87531332209	1
0	1023	2.87537932209	0
0	1062	3.000286361784	1
0	1066	3.000344361784	0
0	1075	3.000434361784	1
0	1079	3.000488361784	0
0	1088	3.001078361784	1
0	1092	3.001136361784	0
0	1099	3.001566361784	1
0	1103	3.001632361784	0
0	1127	3.124987472835	1
0	1132	3.125041472835	0
0	1141	3.125271472835	1
0	1145	3.125337472835	0
0	1166	3.249986522455	1
0	1171	3.250040522455	0
0	1180	3.250290522455	1
0	1184	3.250356522455	0
0	1205	3.37498575348	1
0	1210	3.37503975348	0
0	1219	3.37510975348	1
0	1223	3.37517575348	0
0	1244	3.4999852239	1
0	1249	3.5000392239	0
0	1258	3.5004092239	1
0	1262	3.5004752239	0
0	1283	3.624984640252	1
0	1288	3.625038640252	0
0	1297	3.625168640252	1
0	1301	3.625234640252	0
0	1322	3.749983887202	1
0	1327	3.750037887202	0
0	1336	3.750447887202	1
0	1340	3.750513887202	0
0	1361	3.874982989308	1
0	1366	3.875036989308	0
0	1375	3.875126989308	1
0	1379	3.875192989308	0
0	1414	3.999170117891	1
0	1418	3.999228117891	0
0	1427	3.999638117891	1
0	1431	3.999696117891	0
0	1442	4.000306117891	1
0	1446	4.000360117891	0
0	1455	4.000790117891	1
0	1459	4.000856117891	0
0	1483	4.124981919816	1
0	1488	4.125035919816	0
0	1497	4.125645919816	1
0	1501	4.125711919816	0
0	1522	4.249981366189	1
0	1527	4.250035366189	0
0	1536	4.250565366189	1
0	1540	4.250631366189	0
0	1561	4.37498069366	1
0	1566	4.37503469366	0
0	1575	4.37508469366	1
0	1579	4.37515069366	0
0	1600	4.499979806309	1
0	1605	4.500033806309	0
0	1614	4.500303806309	1
0	1618	4.500369806309	0
0	1639	4.624978655301	1
0	1644	4.625032655301	0
0	1653	4.625522655301	1
0	1657	4.625588655301	0
0	1678	4.749977701753	1
0	1683	4.750031701753	0
0	1692	4.750381701753	1
0	1696	4.750447701753	0
0	1717	4.874976705086	1
0	1722	4.875030705086	0
0	1731	4.875620705086	1
0	1735	4.875686705086	0
0	1770	4.997591942609	1
0	1774	4.997649942609	0
0	1783	4.998159942609	1
0	1787	4.998217942609	0
0	1797	4.999975811599	1
0	1802	5.000029811599	0
0	1811	5.000439811599	1
0	1815	5.000505811599	0
0	1839	5.124975172038	1
0	1844	5.125029172038	0
0	1853	5.125639172038	1
0	1857	5.125705172038	0
0	1878	5.24997486569	1
0	1883	5.25002886569	0
0	1892	5.25023886569	1
0	1896	5.25030486569	0
0	1917	5.374974767485	1
0	1922	5.375028767485	0
0	1931	5.375198767485	1
0	1935	5.375264767485	0
0	1956	5.499974575869	1
0	1961	5.500028575869	0
0	1970	5.500558575869	1
0	1974	5.500624575869	0
0	1995	5.624974123509	1
0	2000	5.625028123509	0
0	2009	5.625578123509	1
0	2013	5.625644123509	0
0	2034	5.749973505602	1
0	2039	5.750027505602	0
0	2048	5.750257505602	1
0	2052	5.750323505602	0
0	2073	5.874972759909	1
0	2078	5.875026759909	0
0	2087	5.875136759909	1
0	2091	5.875202759909	0
0	2112	5.999972201387	1
0	2117	6.000026201387	0
0	2126	6.000236201387	1
0	2130	6.000302201387	0
0	2154	6.002875462767	1
0	2158	6.002933462767	0
0	2167	6.003203462767	1
0	2171	6.003261462767	0
0	2195	6.124971636651	1
0	2200	6.125025636651	0
0	2209	6.125435636651	1
0	2213	6.125501636651	0
0	2234	6.249971389055	1
0	2239	6.250025389055	0
0	2248	6.250075389055	1
0	2252	6.250141389055	0
0	2273	6.374971280316	1
0	2278	6.375025280316	0
0	2287	6.375635280316	1
0	2291	6.375701280316	0
0	2312	6.49997116629	1
0	2317	6.50002516629	0
0	2326	6.50009516629	1
0	2330	6.50016116629	0
0	2351	6.624971167044	1
0	2356	6.625025167044	0
0	2365	6.625135167044	1
0	2369	6.625201167044	0
0	2390	6.749971092312	1
0	2395	6.750025092312	0
0	2404	6.750455092312	1
0	2408	6.750521092312	0
0	2429	6.874971070918	1
0	2434	6.875025070918	0
0	2443	6.875575070918	1
0	2447	6.875641070918	0
0	2468	6.999971226387	1
0	2473	7.000025226387	0
0	2482	7.000195226387	1
0	2486	7.000261226387	0
0	2510	7.000970463228	1
0	2514	7.001028463228	0
0	2523	7.001618463228	1
0	2527	7.001676463228	0
0	2551	7.124971245233	1
0	2556	7.125025245233	0
0	2565	7.125475245233	1
0	2569	7.125541245233	0
0	2590	7.249971408295	1
0	2595	7.250025408295	0
0	2604	7.250675408295	1
0	2608	7.250741408295	0
0	2629	7.374971557023	1
0	2634	7.375025557023	0
0	2643	7.375375557023	1
0	2647	7.375441557023	0
0	2668	7.499971652808	1
0	2673	7.500025652808	0
0	2682	7.500075652808	1
0	2686	7.500141652808	0
0	2707	7.624971658833	1
0	2712	7.625025658833	0
0	2721	7.625195658833	1
0	2725	7.625261658833	0
0	2746	7.749971418163	1
0	2751	7.750025418163	0
0	2760	7.750175418163	1
0	2764	7.750241418163	0
0	2785	7.874971043007	1
0	2790	7.875025043007	0
0	2799	7.875315043007	1
0	2803	7.875381043007	0
0	2838	7.997863102746	1
0	2842	7.997921102746	0
0	2851	7.998451102746	1
0	2855	7.998509102746	0
0	2865	7.999970654611	1
0	2870	8.000024654611	0
0	2879	8.000074654611	1
0	2883	8.000140654611	0
0	2907	8.124970308224	1
0	2912	8.125024308224	0
0	2921	8.125194308224	1
0	2925	8.125260308224	0
0	2946	8.249970171578	1
0	2951	8.250024171578	0
0	2960	8.250174171578	1
0	2964	8.250240171578	0
0	2985	8.374970509209	1
0	2990	8.375024509209	0
0	2999	8.375454509209	1
0	3003	8.375520509209	0
0	3024	8.499971143991	1
0	3029	8.500025143991	0
0	3038	8.500535143991	1
0	3042	8.500601143991	0
0	3063	8.624971817881	1
0	3068	8.625025817881	0
0	3077	8.625675817881	1
0	3081	8.625741817881	0
0	3102	8.749972477373	1
0	3107	8.750026477373	0
0	3116	8.750616477373	1
0	3120	8.750682477373	0
0	3141	8.874972895518	1
0	3146	8.875026895518	0
0	3155	8.875676895518	1
0	3159	8.875742895518	0
0	3180	8.99997309295	1
0	3185	9.00002709295	0
0	3194	9.00009709295	1
0	3198	9.00016309295	0
0	3222	9.001554043635	1
0	3226	9.001612043635	0
0	3235	9.001802043635	1
0	3239	9.001860043635	0
0	3263	9.12497314672	1
0	3268	9.12502714672	0
0	3277	9.12535714672	1
0	3281	9.12542314672	0
0	3302	9.24997320931	1
0	3307	9.25002720931	0
0	3316	9.25025720931	1
0	3320	9.25032320931	0
0	3341	9.374973370935	1
0	3346	9.375027370935	0
0	3355	9.375177370935	1
0	3359	9.375243370935	0
0	3380	9.49997351536	1
0	3385	9.50002751536	0
0	3394	9.50065751536	1
0	3398	9.50072351536	0
0	3419	9.624973626686	1
0	3424	9.625027626686	0
0	3433	9.625597626686	1
0	3437	9.625663626686	0
0	3458	9.749973645055	1
0	3463	9.750027645055	0
0	3472	9.750637645055	1
0	3476	9.750703645055	0
0	3497	9.874973740115	1
0	3502	9.875027740115	0
0	3511	9.875077740115	1
0	3515	9.875143740115	0
0	3550	9.996377922741	1
0	3554	9.996435922741	0
0	3563	9.996645922741	1
0	3567	9.996703922741	0
0	3577	9.999973974496	1
0	3582	10.000027974496	0
0	3591	10.000557974496	1
0	3595	10.000623974496	0
0	3619	10.124974199031	1
0	3624	10.125028199031	0
0	3633	10.125078199031	1
0	3637	10.125144199031	0
0	3658	10.249974385592	1
0	3663	10.250028385592	0
0	3672	10.250198385592	1
0	3676	10.250264385592	0
0	3697	10.374974532834	1
0	3702	10.375028532834	0
0	3711	10.375518532834	1
0	3715	10.375584532834	0
0	3736	10.499974530005	1
0	3741	10.500028530005	0
0	3750	10.500198530005	1
0	3754	10.500264530005	0
0	3775	10.624974769997	1
0	3780	10.625028769997	0
0	3789	10.625458769997	1
0	3793	10.625524769997	0
0	3814	10.749975261435	1
0	3819	10.750029261435	0
0	3828	10.750319261435	1
0	3832	10.750385261435	0
0	3853	10.874975829502	1
0	3858	10.875029829502	0
0	3867	10.875159829502	1
0	3871	10.875225829502	0
0	3906	10.99571075874	1
0	3910	10.99576875874	0
0	3919	10.99643875874	1
0	3923	10.99649675874	0
0	3933	10.999976092368	1
0	3938	11.000030092368	0
0	3947	11.000400092368	1
0	3951	11.000466092368	0
0	3975	11.124976139039	1
0	3980	11.125030139039	0
0	3989	11.125180139039	1
0	3993	11.125246139039	0
0	4014	11.249975999263	1
0	4019	11.250029999263	0
0	4028	11.250199999263	1
0	4032	11.250265999263	0
0	4053	11.374975480566	1
0	4058	11.375029480566	0
0	4067	11.375139480566	1
0	4071	11.375205480566	0
0	4092	11.499974843276	1
0	4097	11.500028843276	0
0	4106	11.500418843276	1
0	4110	11.500484843276	0
0	4131	11.624974383744	1
0	4136	11.625028383744	0
0	4145	11.625158383744	1
0	4149	11.625224383744	0
0	4170	11.749974004751	1
0	4175	11.750028004751	0
0	4184	11.750398004751	1
0	4188	11.750464004751	0
0	4209	11.874973787454	1
0	4214	11.875027787454	0
0	4223	11.875517787454	1
0	4227	11.875583787454	0
0	4262	11.998743255205	1
0	4266	11.998801255205	0
0	4275	11.999231255205	1
0	4279	11.999289255205	0
0	4289	11.999973717964	1
0	4294	12.000027717964	0
0	4303	12.000077717964	1
0	4307	12.000143717964	0
0	4331	12.124973614108	1
0	4336	12.125027614108	0
0	4345	12.125237614108	1
0	4349	12.125303614108	0
0	4370	12.249973676571	1
0	4375	12.250027676571	0
0	4384	12.250637676571	1
0	4388	12.250703676571	0
0	4409	12.374973813557	1
0	4414	12.375027813557	0
0	4423	12.375677813557	1
0	4427	12.375743813557	0
0	4448	12.499974001065	1
0	4453	12.500028001065	0
0	4462	12.500638001065	1
0	4466	12.500704001065	0
0	4487	12.624973843827	1
0	4492	12.625027843827	0
0	4501	12.625197843827	1
0	4505	12.625263843827	0
0	4526	12.749973817901	1
0	4531	12.750027817901	0
0	4540	12.750517817901	1
0	4544	12.750583817901	0
0	4565	12.874973950896	1
0	4570	12.875027950896	0
0	4579	12.875217950896	1
0	4583	12.875283950896	0
0	4604	12.999973669318	1
0	4609	13.000027669318	0
0	4618	13.000177669318	1
0	4622	13.000243669318	0
0	4646	13.001349610496	1
0	4650	13.001407610496	0
0	4659	13.001537610496	1
0	4663	13.001595610496	0
0	4687	13.124973650369	1
0	4692	13.125027650369	0
0	4701	13.125477650369	1
0	4705	13.125543650369	0
0	4726	13.249973798352	1
0	4731	13.250027798352	0
0	4740	13.250297798352	1
0	4744	13.250363798352	0
0	4765	13.374974128979	1
0	4770	13.375028128979	0
0	4779	13.375578128979	1
0	4783	13.375644128979	0
0	4804	13.499974802998	1
0	4809	13.500028802998	0
0	4818	13.500118802998	1
0	4822	13.500184802998	0
0	4843	13.624975510041	1
0	4848	13.625029510041	0
0	4857	13.625579510041	1
0	4861	13.625645510041	0
0	4882	13.749976089363	1