version 3
run General-0-20240417-13:19:17-54800
attr configname General
attr datetime 20240417-13:19:17
attr datetimef 20240417-131917
attr experiment General
attr inifile omnetpp.ini
attr iterationvars ""
attr iterationvarsd ""
attr iterationvarsf ""
attr measurement ""
attr network wGptpPcapRecorder
attr processid 54800
attr repetition 0
attr replication #0
attr resultdir results
attr runnumber 0
attr seedset 0
config image-path ../../../inet4.5/images
config network wGptpPcapRecorder
config total-stack 7MiB
config *.host1.numApps 1
config *.host1.numWlanInterfaces 1
config *.host1.app[*].typename TcpSessionApp
config *.host1.app[0].active false
config *.host1.app[0].localPort -1
config *.host1.app[0].connectAddress "\"host2\""
config *.host1.app[0].connectPort 1000
config *.host1.app[0].tOpen 0.2s
config *.host1.app[0].tSend 0.4s
config *.host1.app[0].sendBytes 400000B
config *.host1.app[0].sendScript "\"\""
config *.host1.app[0].tClose 100s
config *.host2.numApps 1
config *.host2.numWlanInterfaces 1
config *.host2.app[*].typename TcpEchoApp
config *.host2.app[0].active false
config *.host2.app[0].localPort 1000
config *.host2.app[0].echoFactor 2.0
config *.host2.app[0].echoDelay 0s
config *.host*.wlan[*].typename Ieee80211Interface
config *.host*.wlan[*].mgmt.typename Ieee80211MgmtAdhoc
config *.host*.wlan[*].agent.typename ""
config *.host1.numPcapRecorders 1
config *.host2.numPcapRecorders 1
config **.pcapRecorder[*].alwaysFlush true
config **.crcMode "\"computed\""
config **.fcsMode "\"computed\""
config *.host1.gptp.masterPorts "[\"wlan0\"]"
config *.host2.gptp.slavePort "\"wlan0\""
config **.host1.clock.typename OscillatorBasedClock
config **.host1.clock.oscillator.typename RandomDriftOscillator
config **.oscillator.changeInterval 12.5ms
config **.oscillator.driftRate "uniform(-100ppm, 100ppm)"
config **.oscillator.driftRateChange "uniform(-1ppm, 1ppm)"
config **.oscillator.driftRateChangeUpperLimit 100ppm
config **.oscillator.driftRateChangeLowerLimit -100ppm
config **.referenceClock "\"host1.clock\""
config **.gptp.*.vector-recording true

vector 0 wGptpPcapRecorder.host1.wlan[0].mac.dcf frameSequenceActive:vector ETV
attr autoWarmupFilter false
attr interpolationmode sample-hold
attr recordingmode vector
attr source warmup(count(frameSequenceStarted)-count(frameSequenceFinished))
attr title "frame sequence active"
vector 1 wGptpPcapRecorder.host1.wlan[0].mac.dcf.channelAccess.pendingQueue queueLength:vector ETV
attr autoWarmupFilter false
attr interpolationmode sample-hold
attr recordingmode vector
attr source "warmup(atomic(constant0(packetPushEnded) + count(packetPushStarted) - count(packetPulled) - count(packetRemoved) - count(packetDropped)))"
attr title "queue length"
attr unit pk
vector 2 wGptpPcapRecorder.host1.wlan[0].mac.dcf.channelAccess.pendingQueue queueBitLength:vector ETV
attr autoWarmupFilter false
attr interpolationmode sample-hold
attr recordingmode vector
attr source "warmup(atomic(constant0(packetPushEnded) + sum(packetLength(packetPushStarted)) - sum(packetLength(packetPulled)) - sum(packetLength(packetRemoved)) - sum(packetLength(packetDropped))))"
attr title "queue bit length"
attr unit b
vector 3 wGptpPcapRecorder.host1.wlan[0].mac.dcf.channelAccess.inProgressFrames queueLength:vector ETV
attr autoWarmupFilter false
attr interpolationmode sample-hold
attr recordingmode vector
attr source "warmup(count(packetEnqueued) - count(packetDequeued))"
attr title "queue length"
vector 4 wGptpPcapRecorder.host1.wlan[0].mac.dcf.channelAccess.contention backoffActive:vector ETV
attr autoWarmupFilter false
attr interpolationmode sample-hold
attr recordingmode vector
attr source warmup(count(backoffStarted)-count(backoffStopped))
attr title "backoff active"
vector 5 wGptpPcapRecorder.host1.udp passedUpPk:vector(count) ETV
attr interpolationmode none
attr recordingmode vector(count)
attr source packetSentToUpper
attr title "packets passed up, count"
vector 6 wGptpPcapRecorder.host1.udp droppedPkWrongPort:vector(count) ETV
attr interpolationmode none
attr recordingmode vector(count)
attr source packetDropReasonIsNoPortFound(packetDropped)
attr title "packets dropped (wrong port), count"
vector 7 wGptpPcapRecorder.host1.udp droppedPkBadChecksum:vector(count) ETV
attr interpolationmode none
attr recordingmode vector(count)
attr source packetDropReasonIsIncorrectlyReceived(packetDropped)
attr title "packets dropped (checksum error), count"
vector 8 wGptpPcapRecorder.host2.wlan[0].mac.dcf frameSequenceActive:vector ETV
attr autoWarmupFilter false
attr interpolationmode sample-hold
attr recordingmode vector
attr source warmup(count(frameSequenceStarted)-count(frameSequenceFinished))
attr title "frame sequence active"
vector 9 wGptpPcapRecorder.host2.wlan[0].mac.dcf.channelAccess.pendingQueue queueLength:vector ETV
attr autoWarmupFilter false
attr interpolationmode sample-hold
attr recordingmode vector
attr source "warmup(atomic(constant0(packetPushEnded) + count(packetPushStarted) - count(packetPulled) - count(packetRemoved) - count(packetDropped)))"
attr title "queue length"
attr unit pk
vector 10 wGptpPcapRecorder.host2.wlan[0].mac.dcf.channelAccess.pendingQueue queueBitLength:vector ETV
attr autoWarmupFilter false
attr interpolationmode sample-hold
attr recordingmode vector
attr source "warmup(atomic(constant0(packetPushEnded) + sum(packetLength(packetPushStarted)) - sum(packetLength(packetPulled)) - sum(packetLength(packetRemoved)) - sum(packetLength(packetDropped))))"
attr title "queue bit length"
attr unit b
vector 11 wGptpPcapRecorder.host2.wlan[0].mac.dcf.channelAccess.inProgressFrames queueLength:vector ETV
attr autoWarmupFilter false
attr interpolationmode sample-hold
attr recordingmode vector
attr source "warmup(count(packetEnqueued) - count(packetDequeued))"
attr title "queue length"
vector 12 wGptpPcapRecorder.host2.wlan[0].mac.dcf.channelAccess.contention backoffActive:vector ETV
attr autoWarmupFilter false
attr interpolationmode sample-hold
attr recordingmode vector
attr source warmup(count(backoffStarted)-count(backoffStopped))
attr title "backoff active"
vector 13 wGptpPcapRecorder.host2.udp passedUpPk:vector(count) ETV
attr interpolationmode none
attr recordingmode vector(count)
attr source packetSentToUpper
attr title "packets passed up, count"
vector 14 wGptpPcapRecorder.host2.udp droppedPkWrongPort:vector(count) ETV
attr interpolationmode none
attr recordingmode vector(count)
attr source packetDropReasonIsNoPortFound(packetDropped)
attr title "packets dropped (wrong port), count"
vector 15 wGptpPcapRecorder.host2.udp droppedPkBadChecksum:vector(count) ETV
attr interpolationmode none
attr recordingmode vector(count)
attr source packetDropReasonIsIncorrectlyReceived(packetDropped)
attr title "packets dropped (checksum error), count"
vector 16 wGptpPcapRecorder.host1.wlan[0].radio radioMode:vector ETV
attr interpolationmode sample-hold
attr recordingmode vector
attr source radioModeChanged
attr title "Radio mode"
vector 17 wGptpPcapRecorder.host1.wlan[0].radio radioChannel:vector ETV
attr interpolationmode sample-hold
attr recordingmode vector
attr source radioChannelChanged
attr title "Radio channel"
vector 18 wGptpPcapRecorder.host2.wlan[0].radio radioMode:vector ETV
attr interpolationmode sample-hold
attr recordingmode vector
attr source radioModeChanged
attr title "Radio mode"
vector 19 wGptpPcapRecorder.host2.wlan[0].radio radioChannel:vector ETV
attr interpolationmode sample-hold
attr recordingmode vector
attr source radioChannelChanged
attr title "Radio channel"
vector 20 wGptpPcapRecorder.host1.wlan[0].radio receptionState:vector ETV
attr interpolationmode sample-hold
attr recordingmode vector
attr source receptionStateChanged
attr title "Radio reception state"
vector 21 wGptpPcapRecorder.host1.wlan[0].mac.dcf.channelAccess.contention stateChanged:vector ETV
attr enum IDLE,DEFER,IFS_AND_BACKOFF
attr interpolationmode none
attr recordingmode vector
attr title "contention state changed"
attr type enum
vector 22 wGptpPcapRecorder.host2.wlan[0].radio receptionState:vector ETV
attr interpolationmode sample-hold
attr recordingmode vector
attr source receptionStateChanged
attr title "Radio reception state"
vector 23 wGptpPcapRecorder.host2.wlan[0].mac.dcf.channelAccess.contention stateChanged:vector ETV
attr enum IDLE,DEFER,IFS_AND_BACKOFF
attr interpolationmode none
attr recordingmode vector
attr title "contention state changed"
attr type enum
vector 24 wGptpPcapRecorder.host1.clock timeChanged:vector ETV
attr interpolationmode linear
attr recordingmode vector
attr title "Clock time"
vector 25 wGptpPcapRecorder.host1.wlan[0].mac.dcf.recoveryProcedure contentionWindowChanged:vector ETV
attr interpolationmode sample-hold
attr recordingmode vector
attr title "contention window"
vector 26 wGptpPcapRecorder.host2.clock timeChanged:vector ETV
attr interpolationmode linear
attr recordingmode vector
attr title "Clock time"
vector 27 wGptpPcapRecorder.host2.wlan[0].mac.dcf.recoveryProcedure contentionWindowChanged:vector ETV
attr interpolationmode sample-hold
attr recordingmode vector
attr title "contention window"
vector 28 wGptpPcapRecorder.host2.wlan[0].mac packetReceivedFromUpper:vector(packetBytes) ETV
attr interpolationmode none
attr recordingmode vector(packetBytes)
attr title "packets received from upper layer, packetBytes"
vector 29 wGptpPcapRecorder.host2.wlan[0].mac.dcf.channelAccess.pendingQueue incomingPacketLengths:vector ETV
attr interpolationmode none
attr recordingmode vector
attr source packetLength(packetPushStarted)
attr title "incoming packet lengths"
attr unit b
vector 30 wGptpPcapRecorder.host2.wlan[0].mac.dcf.channelAccess.contention backoffPeriodGenerated:vector ETV
attr interpolationmode none
attr recordingmode vector
attr title "backoff periods"
vector 31 wGptpPcapRecorder.host2.wlan[0].mac.dcf.channelAccess.pendingQueue queueingTime:vector ETV
attr interpolationmode none
attr recordingmode vector
attr source queueingTime(packetPulled)
attr title "queueing times"
attr unit s
vector 32 wGptpPcapRecorder.host2.wlan[0].mac.dcf.channelAccess.pendingQueue outgoingPacketLengths:vector ETV
attr interpolationmode none
attr recordingmode vector
attr source packetLength(packetPulled)
attr title "outgoing packet lengths"
attr unit b
vector 33 wGptpPcapRecorder.host2.wlan[0].mac.dcf datarateSelected:vector ETV
attr interpolationmode none
attr recordingmode vector
attr title "datarates selected"
vector 34 wGptpPcapRecorder.host2.wlan[0].mac packetSentToLower:vector(packetBytes) ETV
attr interpolationmode none
attr recordingmode vector(packetBytes)
attr title "packets sent to lower layer, packetBytes"
vector 35 wGptpPcapRecorder.host2.wlan[0].radio transmissionState:vector ETV
attr interpolationmode sample-hold
attr recordingmode vector
attr source transmissionStateChanged
attr title "Radio transmission state"
vector 36 wGptpPcapRecorder.host2.wlan[0].mac.dcf packetSentToPeer:vector(packetBytes) ETV
attr interpolationmode none
attr recordingmode vector(packetBytes)
attr title "packets sent, packetBytes"
vector 37 wGptpPcapRecorder.host2.wlan[0].mac.dcf packetSentToPeerMulticast:vector(packetBytes) ETV
attr interpolationmode none
attr recordingmode vector(packetBytes)
attr source ieee80211Multicast(packetSentToPeer)
attr title "packets sent: multicast, packetBytes"
vector 38 wGptpPcapRecorder.host2.wlan[0].mac.dcf packetSentToPeerWithoutRetry:vector(packetBytes) ETV
attr interpolationmode none
attr recordingmode vector(packetBytes)
attr source ieee80211NotRetry(packetSentToPeer)
attr title "packets sent: without retry, packetBytes"
vector 39 wGptpPcapRecorder.host2.wlan[0].mac.dcf.channelAccess.inProgressFrames queueingTime:vector ETV
attr interpolationmode none
attr recordingmode vector
attr source queueingTime(packetDequeued)
attr title "queueing times"
vector 40 wGptpPcapRecorder.host1.wlan[0].mac packetReceivedFromLower:vector(packetBytes) ETV
attr interpolationmode none
attr recordingmode vector(packetBytes)
attr title "packets received from lower layer, packetBytes"
vector 41 wGptpPcapRecorder.host1.wlan[0].mac.dcf packetReceivedFromPeer:vector(packetBytes) ETV
attr interpolationmode none
attr recordingmode vector(packetBytes)
attr title "packets received, packetBytes"
vector 42 wGptpPcapRecorder.host1.wlan[0].mac.dcf packetReceivedFromPeerMulticast:vector(packetBytes) ETV
attr interpolationmode none
attr recordingmode vector(packetBytes)
attr source ieee80211Multicast(packetReceivedFromPeer)
attr title "packets received: multicast, packetBytes"
vector 43 wGptpPcapRecorder.host1.wlan[0].mac.dcf packetReceivedFromPeerWithoutRetry:vector(packetBytes) ETV
attr interpolationmode none
attr recordingmode vector(packetBytes)
attr source ieee80211NotRetry(packetReceivedFromPeer)
attr title "packets received: without retry, packetBytes"
vector 44 wGptpPcapRecorder.host1.wlan[0].mac packetSentToUpper:vector(packetBytes) ETV
attr interpolationmode none
attr recordingmode vector(packetBytes)
attr title "packets sent to upper layer, packetBytes"
vector 45 wGptpPcapRecorder.host1.wlan[0].mac packetReceivedFromUpper:vector(packetBytes) ETV
attr interpolationmode none
attr recordingmode vector(packetBytes)
attr title "packets received from upper layer, packetBytes"
vector 46 wGptpPcapRecorder.host1.wlan[0].mac.dcf.channelAccess.pendingQueue incomingPacketLengths:vector ETV
attr interpolationmode none
attr recordingmode vector
attr source packetLength(packetPushStarted)
attr title "incoming packet lengths"
attr unit b
vector 47 wGptpPcapRecorder.host1.wlan[0].mac.dcf.channelAccess.contention backoffPeriodGenerated:vector ETV
attr interpolationmode none
attr recordingmode vector
attr title "backoff periods"
vector 48 wGptpPcapRecorder.host1.wlan[0].mac.dcf.channelAccess.pendingQueue queueingTime:vector ETV
attr interpolationmode none
attr recordingmode vector
attr source queueingTime(packetPulled)
attr title "queueing times"
attr unit s
vector 49 wGptpPcapRecorder.host1.wlan[0].mac.dcf.channelAccess.pendingQueue outgoingPacketLengths:vector ETV
attr interpolationmode none
attr recordingmode vector
attr source packetLength(packetPulled)
attr title "outgoing packet lengths"
attr unit b
vector 50 wGptpPcapRecorder.host1.wlan[0].mac.dcf datarateSelected:vector ETV
attr interpolationmode none
attr recordingmode vector
attr title "datarates selected"
vector 51 wGptpPcapRecorder.host1.wlan[0].mac packetSentToLower:vector(packetBytes) ETV
attr interpolationmode none
attr recordingmode vector(packetBytes)
attr title "packets sent to lower layer, packetBytes"
vector 52 wGptpPcapRecorder.host1.wlan[0].radio transmissionState:vector ETV
attr interpolationmode sample-hold
attr recordingmode vector
attr source transmissionStateChanged
attr title "Radio transmission state"
vector 53 wGptpPcapRecorder.host1.wlan[0].mac.dcf packetSentToPeer:vector(packetBytes) ETV
attr interpolationmode none
attr recordingmode vector(packetBytes)
attr title "packets sent, packetBytes"
vector 54 wGptpPcapRecorder.host1.wlan[0].mac.dcf packetSentToPeerMulticast:vector(packetBytes) ETV
attr interpolationmode none
attr recordingmode vector(packetBytes)
attr source ieee80211Multicast(packetSentToPeer)
attr title "packets sent: multicast, packetBytes"
vector 55 wGptpPcapRecorder.host1.wlan[0].mac.dcf packetSentToPeerWithoutRetry:vector(packetBytes) ETV
attr interpolationmode none
attr recordingmode vector(packetBytes)
attr source ieee80211NotRetry(packetSentToPeer)
attr title "packets sent: without retry, packetBytes"
vector 56 wGptpPcapRecorder.host1.wlan[0].mac.dcf.channelAccess.inProgressFrames queueingTime:vector ETV
attr interpolationmode none
attr recordingmode vector
attr source queueingTime(packetDequeued)
attr title "queueing times"
vector 57 wGptpPcapRecorder.host2.wlan[0].mac packetReceivedFromLower:vector(packetBytes) ETV
attr interpolationmode none
attr recordingmode vector(packetBytes)
attr title "packets received from lower layer, packetBytes"
vector 58 wGptpPcapRecorder.host2.wlan[0].mac.dcf packetReceivedFromPeer:vector(packetBytes) ETV
attr interpolationmode none
attr recordingmode vector(packetBytes)
attr title "packets received, packetBytes"
vector 59 wGptpPcapRecorder.host2.wlan[0].mac.dcf packetReceivedFromPeerMulticast:vector(packetBytes) ETV
attr interpolationmode none
attr recordingmode vector(packetBytes)
attr source ieee80211Multicast(packetReceivedFromPeer)
attr title "packets received: multicast, packetBytes"
vector 60 wGptpPcapRecorder.host2.wlan[0].mac.dcf packetReceivedFromPeerWithoutRetry:vector(packetBytes) ETV
attr interpolationmode none
attr recordingmode vector(packetBytes)
attr source ieee80211NotRetry(packetReceivedFromPeer)
attr title "packets received: without retry, packetBytes"
vector 61 wGptpPcapRecorder.host2.wlan[0].mac packetSentToUpper:vector(packetBytes) ETV
attr interpolationmode none
attr recordingmode vector(packetBytes)
attr title "packets sent to upper layer, packetBytes"
vector 62 wGptpPcapRecorder.host2.gptp peerDelay:vector ETV
attr interpolationmode sample-hold
attr recordingmode vector
vector 63 wGptpPcapRecorder.host1.clock.oscillator driftRateChanged:vector ETV
attr interpolationmode sample-hold
attr recordingmode vector
attr title "Oscillator drift rate"
attr unit ppm
vector 64 wGptpPcapRecorder.host1.wlan[0].mac.dcf.channelAccess.pendingQueue incomingDataRate:vector ETV
attr interpolationmode linear
attr recordingmode vector
attr source throughput(packetPushStarted)
attr title "incoming datarate"
attr unit bps
vector 65 wGptpPcapRecorder.host1.wlan[0].mac.dcf.channelAccess.pendingQueue outgoingDataRate:vector ETV
attr interpolationmode linear
attr recordingmode vector
attr source throughput(packetPulled)
attr title "outgoing datarate"
attr unit bps
vector 66 wGptpPcapRecorder.host2.gptp timeDifference:vector ETV
attr interpolationmode linear
attr recordingmode vector
vector 67 wGptpPcapRecorder.host2.gptp rateRatio:vector ETV
attr interpolationmode sample-hold
attr recordingmode vector
vector 68 wGptpPcapRecorder.host2.gptp localTime:vector ETV
attr interpolationmode linear
attr recordingmode vector
0	0	0	0
0	0	0	0
0	20	0.000479334256	1
0	24	0.000537334256	0
0	33	0.000967334256	1
0	37	0.001025334256	0
0	60	0.125000006452	1
0	64	0.125054006452	0
0	73	0.125244006452	1
0	77	0.125310006452	0
1	0	0	0
1	0	0	0
1	0	0	0
1	0	0	0
1	0	0	0
1	18	0.000257334256	1
1	20	0.000479334256	0
1	27	0.000537334256	1
1	33	0.000967334256	0
1	58	0.125000006452	1
1	60	0.125000006452	0
1	67	0.125054006452	1
1	73	0.125244006452	0
2	0	0	0
2	0	0	0
2	0	0	0
2	0	0	0
2	0	0	0
2	18	0.000257334256	720
2	20	0.000479334256	0
2	27	0.000537334256	720
2	33	0.000967334256	0
2	58	0.125000006452	640
2	60	0.125000006452	0
2	67	0.125054006452	896
2	73	0.125244006452	0
3	0	0	0
3	0	0	0
3	20	0.000479334256	1
3	24	0.000537334256	0
3	33	0.000967334256	1
3	37	0.001025334256	0
3	60	0.125000006452	1
3	64	0.125054006452	0
3	73	0.125244006452	1
3	77	0.125310006452	0
4	0	0	0
4	0	0	0
4	18	0.000257334256	1
4	19	0.000479334256	0
4	27	0.000537334256	1
4	32	0.000967334256	0
4	58	0.125000006452	1
4	59	0.125000006452	0
4	67	0.125054006452	1
4	72	0.125244006452	0
5	0	0	0
6	0	0	0
7	0	0	0
8	0	0	0
8	0	0	0
8	6	0.00019	1
8	10	0.000248	0
9	0	0	0
9	0	0	0
9	0	0	0
9	0	0	0
9	0	0	0
9	4	0	1
9	6	0.00019	0
10	0	0	0
10	0	0	0
10	0	0	0
10	0	0	0
10	0	0	0
10	4	0	720
10	6	0.00019	0
11	0	0	0
11	0	0	0
11	6	0.00019	1
11	10	0.000248	0
12	0	0	0
12	0	0	0
12	4	0	1
12	5	0.00019	0
13	0	0	0
14	0	0	0
15	0	0	0
16	0	0	0
16	0	0	0
16	0	0	2
16	21	0.000479334256	3
16	25	0.000537334256	2
16	34	0.000967334256	3
16	38	0.001025334256	2
16	61	0.125000006452	3
16	65	0.125054006452	2
16	74	0.125244006452	3
16	78	0.125310006452	2
17	0	0	0
18	0	0	0
18	0	0	0
18	0	0	2
18	7	0.00019	3
18	11	0.000248	2
19	0	0	0
20	0	0	1
20	9	0.000191334256	3
20	12	0.000249334256	1
20	21	0.000479334256	0
20	25	0.000537334256	1
20	34	0.000967334256	0
20	38	0.001025334256	1
20	61	0.125000006452	0
20	65	0.125054006452	1
20	74	0.125244006452	0
20	78	0.125310006452	1
21	0	0	0
21	0	0	0
21	9	0.000191334256	0
21	9	0.000191334256	0
21	12	0.000249334256	0
21	12	0.000249334256	0
21	18	0.000257334256	0
21	18	0.000257334256	2
21	19	0.000479334256	2
21	19	0.000479334256	0
21	21	0.000479334256	0
21	21	0.000479334256	0
21	25	0.000537334256	0
21	25	0.000537334256	0
21	27	0.000537334256	0
21	27	0.000537334256	2
21	32	0.000967334256	2
21	32	0.000967334256	0
21	34	0.000967334256	0
21	34	0.000967334256	0
21	38	0.001025334256	0
21	38	0.001025334256	0
21	58	0.125000006452	0
21	58	0.125000006452	2
21	59	0.125000006452	2
21	59	0.125000006452	0
21	61	0.125000006452	0
21	61	0.125000006452	0
21	65	0.125054006452	0
21	65	0.125054006452	0
21	67	0.125054006452	0
21	67	0.125054006452	2
21	72	0.125244006452	2
21	72	0.125244006452	0
21	74	0.125244006452	0
21	74	0.125244006452	0
21	78	0.125310006452	0
21	78	0.125310006452	0
22	0	0	1
22	7	0.00019	0
22	11	0.000248	1
22	23	0.000480668512	3
22	28	0.000538668512	1
22	36	0.000968668512	3
22	39	0.001026668512	1
22	63	0.125001340708	3
22	68	0.125055340708	1
22	76	0.125245340708	3
22	79	0.125311340708	1
23	0	0	0
23	0	0	0
23	4	0	0
23	4	0	2
23	5	0.00019	2
23	5	0.00019	0
23	7	0.00019	0
23	7	0.00019	0
23	11	0.000248	0
23	11	0.000248	0
23	23	0.000480668512	0
23	23	0.000480668512	0
23	28	0.000538668512	0
23	28	0.000538668512	0
23	36	0.000968668512	0
23	36	0.000968668512	0
23	39	0.001026668512	0
23	39	0.001026668512	0
23	63	0.125001340708	0
23	63	0.125001340708	0
23	68	0.125055340708	0
23	68	0.125055340708	0
23	76	0.125245340708	0
23	76	0.125245340708	0
23	79	0.125311340708	0
23	79	0.125311340708	0
24	0	0	0
24	46	0.0125	0.0125
24	47	0.025	0.025000003647
24	48	0.0375	0.037500004403
24	49	0.05	0.0500000036
24	50	0.0625	0.062499997735
24	51	0.075	0.075000001664
24	52	0.0875	0.087499994512
24	53	0.1	0.09999999895
24	54	0.1125	0.112499997706
24	55	0.125	0.124999993548
24	85	0.1375	0.137499988831
24	86	0.15	0.149999984837
24	87	0.1625	0.162499980342
24	88	0.175	0.174999977548
24	89	0.1875	0.187499972074
25	0	0	31
26	0	0	0
26	82	0.125311340708	0.125312465582
26	82	0.125311340708	0.125311337839
27	0	0	31
28	4	0	62
29	4	0	720
30	4	0	7
31	6	0.00019	0.00019
32	6	0.00019	720
33	6	0.00019	24000000
34	6	0.00019	90
35	7	0.00019	1
35	8	0.00019	2
35	10	0.000248	1
35	11	0.000248	0
36	10	0.000248	90
37	10	0.000248	90
38	10	0.000248	90
39	10	0.000248	5.8e-05
40	13	0.000249334256	90
41	13	0.000249334256	90
42	13	0.000249334256	90
43	13	0.000249334256	90
44	13	0.000249334256	62
45	18	0.000257334256	62
45	27	0.000537334256	62
45	58	0.125000006452	52
45	67	0.125054006452	84
46	18	0.000257334256	720
46	27	0.000537334256	720
46	58	0.125000006452	640
46	67	0.125054006452	896
47	18	0.000257334256	9
47	27	0.000537334256	19
47	58	0.125000006452	6
47	67	0.125054006452	7
48	20	0.000479334256	0.000222
48	33	0.000967334256	0.00043
48	60	0.125000006452	0
48	73	0.125244006452	0.00019
49	20	0.000479334256	720
49	33	0.000967334256	720
49	60	0.125000006452	640
49	73	0.125244006452	896
50	20	0.000479334256	24000000
50	33	0.000967334256	24000000
50	60	0.125000006452	24000000
50	73	0.125244006452	24000000
51	20	0.000479334256	90
51	33	0.000967334256	90
51	60	0.125000006452	80
51	73	0.125244006452	112
52	21	0.000479334256	1
52	22	0.000479334256	2
52	24	0.000537334256	1
52	25	0.000537334256	0
52	34	0.000967334256	1
52	35	0.000967334256	2
52	37	0.001025334256	1
52	38	0.001025334256	0
52	61	0.125000006452	1
52	62	0.125000006452	2
52	64	0.125054006452	1
52	65	0.125054006452	0
52	74	0.125244006452	1
52	75	0.125244006452	2
52	77	0.125310006452	1
52	78	0.125310006452	0
53	24	0.000537334256	90
53	37	0.001025334256	90
53	64	0.125054006452	80
53	77	0.125310006452	112
54	24	0.000537334256	90
54	37	0.001025334256	90
54	64	0.125054006452	80
54	77	0.125310006452	112
55	24	0.000537334256	90
55	37	0.001025334256	90
55	64	0.125054006452	80
55	77	0.125310006452	112
56	24	0.000537334256	5.8e-05
56	37	0.001025334256	5.8e-05
56	64	0.125054006452	5.4e-05
56	77	0.125310006452	6.6e-05
57	29	0.000538668512	90
57	40	0.001026668512	90
57	69	0.125055340708	80
57	80	0.125311340708	112
58	29	0.000538668512	90
58	40	0.001026668512	90
58	69	0.125055340708	80
58	80	0.125311340708	112
59	29	0.000538668512	90
59	40	0.001026668512	90
59	69	0.125055340708	80
59	80	0.125311340708	112
60	29	0.000538668512	90
60	40	0.001026668512	90
60	69	0.125055340708	80
60	80	0.125311340708	112
61	29	0.000538668512	62
61	40	0.001026668512	62
61	69	0.125055340708	52
61	80	0.125311340708	84
62	42	0.001026668512	1.335561e-06
63	46	0.0125	0.29178823018447
63	47	0.025	0.060551646631211
63	48	0.0375	-0.06427393341437
63	49	0.05	-0.46920472290367
63	50	0.0625	0.31434128060937
63	51	0.075	-0.57223276793957
63	52	0.0875	0.35509276017547
63	53	0.1	-0.099594650790095
63	54	0.1125	-0.33271160814911
63	55	0.125	-0.37738138483837
63	85	0.1375	-0.31959154177457
63	86	0.15	-0.35963719896972
63	87	0.1625	-0.22354807145894
63	88	0.175	-0.4379784851335
63	89	0.1875	0.41321478132159
64	58	0.1	14400
65	60	0.1	14400
66	82	0.125311340708	1.124874e-06
66	82	0.125311340708	-2.869e-09
67	82	0.125311340708	1
68	82	0.125311340708	0.125311337839

