file 77027918 1713403126                                        
version 3
run IncrementalChannelHopping-0-20240417-20:18:34-104045
attr configname IncrementalChannelHopping
attr datetime 20240417-20:18:34
attr datetimef 20240417-201834
attr experiment IncrementalChannelHopping
attr inifile omnetpp.ini
attr iterationvars ""
attr iterationvarsd ""
attr iterationvarsf ""
attr measurement ""
attr network wGptpPcapRecorder
attr processid 104045
attr repetition 0
attr replication #0
attr resultdir results
attr runnumber 0
attr seedset 0
config image-path ../../../inet4.5/images
config extends Different_gPTP_Parameters
config sim-time-limit 1800s
config *.*.gptp.channelHopType "\"incremental\""
config extends With_TCP_Client
config sim-time-limit 3600s
config extends General
config description "Add a TcpSessionApp to Host 2"
config *.host1.numApps 1
config *.host1.app[*].typename TcpSessionApp
config *.host1.app[0].active true
config *.host1.app[0].localPort -1
config *.host1.app[0].connectAddress "\"host2\""
config *.host1.app[0].connectPort 1000
config *.host1.app[0].tOpen 0.2s
config *.host1.app[0].tSend 0.4s
config *.host1.app[0].sendBytes 400000B
config *.host1.app[0].sendScript "\"\""
config *.host1.app[0].tClose 100s
config network wGptpPcapRecorder
config total-stack 7MiB
config *.radioMedium.analogModel.ignorePartialInterference true
config *.host1.numWlanInterfaces 1
config *.host2.numWlanInterfaces 1
config *.host*.wlan[*].typename Ieee80211Interface
config *.host*.wlan[*].mgmt.typename Ieee80211MgmtAdhoc
config *.host*.wlan[*].agent.typename ""
config *.host1.gptp.masterPorts "[\"wlan0\"]"
config *.host2.gptp.slavePort "\"wlan0\""
config **.gptp.*.vector-recording true
config *.host1.numPcapRecorders 1
config *.host2.numPcapRecorders 1
config **.pcapRecorder[*].alwaysFlush true
config **.crcMode "\"computed\""
config **.fcsMode "\"computed\""
config **.host1.clock.typename OscillatorBasedClock
config **.host1.clock.oscillator.typename RandomDriftOscillator
config **.oscillator.changeInterval 12.5ms
config **.oscillator.driftRate "uniform(-100ppm, 100ppm)"
config **.oscillator.driftRateChange "uniform(-1ppm, 1ppm)"
config **.oscillator.driftRateChangeUpperLimit 100ppm
config **.oscillator.driftRateChangeLowerLimit -100ppm
config **.referenceClock "\"host1.clock\""
config *.host2.numApps 1
config *.host2.app[*].typename TcpEchoApp
config *.host2.app[0].localPort 1000
config *.host2.app[0].echoFactor 2.0
config *.host2.app[0].echoDelay 0s

vector 0 wGptpPcapRecorder.host1.wlan[0].mac.dcf frameSequenceActive:vector ETV
attr autoWarmupFilter false
attr interpolationmode sample-hold
attr recordingmode vector
attr source warmup(count(frameSequenceStarted)-count(frameSequenceFinished))
attr title "frame sequence active"
vector 1 wGptpPcapRecorder.host1.wlan[0].mac.dcf.channelAccess.pendingQueue queueLength:vector ETV
attr autoWarmupFilter false
attr interpolationmode sample-hold
attr recordingmode vector
attr source "warmup(atomic(constant0(packetPushEnded) + count(packetPushStarted) - count(packetPulled) - count(packetRemoved) - count(packetDropped)))"
attr title "queue length"
attr unit pk
vector 2 wGptpPcapRecorder.host1.wlan[0].mac.dcf.channelAccess.pendingQueue queueBitLength:vector ETV
attr autoWarmupFilter false
attr interpolationmode sample-hold
attr recordingmode vector
attr source "warmup(atomic(constant0(packetPushEnded) + sum(packetLength(packetPushStarted)) - sum(packetLength(packetPulled)) - sum(packetLength(packetRemoved)) - sum(packetLength(packetDropped))))"
attr title "queue bit length"
attr unit b
vector 3 wGptpPcapRecorder.host1.wlan[0].mac.dcf.channelAccess.inProgressFrames queueLength:vector ETV
attr autoWarmupFilter false
attr interpolationmode sample-hold
attr recordingmode vector
attr source "warmup(count(packetEnqueued) - count(packetDequeued))"
attr title "queue length"
vector 4 wGptpPcapRecorder.host1.wlan[0].mac.dcf.channelAccess.contention backoffActive:vector ETV
attr autoWarmupFilter false
attr interpolationmode sample-hold
attr recordingmode vector
attr source warmup(count(backoffStarted)-count(backoffStopped))
attr title "backoff active"
vector 5 wGptpPcapRecorder.host1.udp passedUpPk:vector(count) ETV
attr interpolationmode none
attr recordingmode vector(count)
attr source packetSentToUpper
attr title "packets passed up, count"
vector 6 wGptpPcapRecorder.host1.udp droppedPkWrongPort:vector(count) ETV
attr interpolationmode none
attr recordingmode vector(count)
attr source packetDropReasonIsNoPortFound(packetDropped)
attr title "packets dropped (wrong port), count"
vector 7 wGptpPcapRecorder.host1.udp droppedPkBadChecksum:vector(count) ETV
attr interpolationmode none
attr recordingmode vector(count)
attr source packetDropReasonIsIncorrectlyReceived(packetDropped)
attr title "packets dropped (checksum error), count"
vector 8 wGptpPcapRecorder.host2.wlan[0].mac.dcf frameSequenceActive:vector ETV
attr autoWarmupFilter false
attr interpolationmode sample-hold
attr recordingmode vector
attr source warmup(count(frameSequenceStarted)-count(frameSequenceFinished))
attr title "frame sequence active"
vector 9 wGptpPcapRecorder.host2.wlan[0].mac.dcf.channelAccess.pendingQueue queueLength:vector ETV
attr autoWarmupFilter false
attr interpolationmode sample-hold
attr recordingmode vector
attr source "warmup(atomic(constant0(packetPushEnded) + count(packetPushStarted) - count(packetPulled) - count(packetRemoved) - count(packetDropped)))"
attr title "queue length"
attr unit pk
vector 10 wGptpPcapRecorder.host2.wlan[0].mac.dcf.channelAccess.pendingQueue queueBitLength:vector ETV
attr autoWarmupFilter false
attr interpolationmode sample-hold
attr recordingmode vector
attr source "warmup(atomic(constant0(packetPushEnded) + sum(packetLength(packetPushStarted)) - sum(packetLength(packetPulled)) - sum(packetLength(packetRemoved)) - sum(packetLength(packetDropped))))"
attr title "queue bit length"
attr unit b
vector 11 wGptpPcapRecorder.host2.wlan[0].mac.dcf.channelAccess.inProgressFrames queueLength:vector ETV
attr autoWarmupFilter false
attr interpolationmode sample-hold
attr recordingmode vector
attr source "warmup(count(packetEnqueued) - count(packetDequeued))"
attr title "queue length"
vector 12 wGptpPcapRecorder.host2.wlan[0].mac.dcf.channelAccess.contention backoffActive:vector ETV
attr autoWarmupFilter false
attr interpolationmode sample-hold
attr recordingmode vector
attr source warmup(count(backoffStarted)-count(backoffStopped))
attr title "backoff active"
vector 13 wGptpPcapRecorder.host2.udp passedUpPk:vector(count) ETV
attr interpolationmode none
attr recordingmode vector(count)
attr source packetSentToUpper
attr title "packets passed up, count"
vector 14 wGptpPcapRecorder.host2.udp droppedPkWrongPort:vector(count) ETV
attr interpolationmode none
attr recordingmode vector(count)
attr source packetDropReasonIsNoPortFound(packetDropped)
attr title "packets dropped (wrong port), count"
vector 15 wGptpPcapRecorder.host2.udp droppedPkBadChecksum:vector(count) ETV
attr interpolationmode none
attr recordingmode vector(count)
attr source packetDropReasonIsIncorrectlyReceived(packetDropped)
attr title "packets dropped (checksum error), count"
vector 16 wGptpPcapRecorder.host1.wlan[0].radio radioMode:vector ETV
attr interpolationmode sample-hold
attr recordingmode vector
attr source radioModeChanged
attr title "Radio mode"
vector 17 wGptpPcapRecorder.host1.wlan[0].radio radioChannel:vector ETV
attr interpolationmode sample-hold
attr recordingmode vector
attr source radioChannelChanged
attr title "Radio channel"
vector 18 wGptpPcapRecorder.host2.wlan[0].radio radioMode:vector ETV
attr interpolationmode sample-hold
attr recordingmode vector
attr source radioModeChanged
attr title "Radio mode"
vector 19 wGptpPcapRecorder.host2.wlan[0].radio radioChannel:vector ETV
attr interpolationmode sample-hold
attr recordingmode vector
attr source radioChannelChanged
attr title "Radio channel"
vector 20 wGptpPcapRecorder.host1.wlan[0].radio receptionState:vector ETV
attr interpolationmode sample-hold
attr recordingmode vector
attr source receptionStateChanged
attr title "Radio reception state"
vector 21 wGptpPcapRecorder.host1.wlan[0].mac.dcf.channelAccess.contention stateChanged:vector ETV
attr enum IDLE,DEFER,IFS_AND_BACKOFF
attr interpolationmode none
attr recordingmode vector
attr title "contention state changed"
attr type enum
vector 22 wGptpPcapRecorder.host2.wlan[0].radio receptionState:vector ETV
attr interpolationmode sample-hold
attr recordingmode vector
attr source receptionStateChanged
attr title "Radio reception state"
vector 23 wGptpPcapRecorder.host2.wlan[0].mac.dcf.channelAccess.contention stateChanged:vector ETV
attr enum IDLE,DEFER,IFS_AND_BACKOFF
attr interpolationmode none
attr recordingmode vector
attr title "contention state changed"
attr type enum
vector 24 wGptpPcapRecorder.host1.clock timeChanged:vector ETV
attr interpolationmode linear
attr recordingmode vector
attr title "Clock time"
vector 25 wGptpPcapRecorder.host1.wlan[0].mac.dcf.recoveryProcedure contentionWindowChanged:vector ETV
attr interpolationmode sample-hold
attr recordingmode vector
attr title "contention window"
vector 26 wGptpPcapRecorder.host2.clock timeChanged:vector ETV
attr interpolationmode linear
attr recordingmode vector
attr title "Clock time"
vector 27 wGptpPcapRecorder.host2.wlan[0].mac.dcf.recoveryProcedure contentionWindowChanged:vector ETV
attr interpolationmode sample-hold
attr recordingmode vector
attr title "contention window"
vector 28 wGptpPcapRecorder.host2.wlan[0].mac packetReceivedFromUpper:vector(packetBytes) ETV
attr interpolationmode none
attr recordingmode vector(packetBytes)
attr title "packets received from upper layer, packetBytes"
vector 29 wGptpPcapRecorder.host2.wlan[0].mac.dcf.channelAccess.pendingQueue incomingPacketLengths:vector ETV
attr interpolationmode none
attr recordingmode vector
attr source packetLength(packetPushStarted)
attr title "incoming packet lengths"
attr unit b
vector 30 wGptpPcapRecorder.host2.wlan[0].mac.dcf.channelAccess.contention backoffPeriodGenerated:vector ETV
attr interpolationmode none
attr recordingmode vector
attr title "backoff periods"
vector 31 wGptpPcapRecorder.host2.wlan[0].mac.dcf.channelAccess.pendingQueue queueingTime:vector ETV
attr interpolationmode none
attr recordingmode vector
attr source queueingTime(packetPulled)
attr title "queueing times"
attr unit s
vector 32 wGptpPcapRecorder.host2.wlan[0].mac.dcf.channelAccess.pendingQueue outgoingPacketLengths:vector ETV
attr interpolationmode none
attr recordingmode vector
attr source packetLength(packetPulled)
attr title "outgoing packet lengths"
attr unit b
vector 33 wGptpPcapRecorder.host2.wlan[0].mac.dcf datarateSelected:vector ETV
attr interpolationmode none
attr recordingmode vector
attr title "datarates selected"
vector 34 wGptpPcapRecorder.host2.wlan[0].mac packetSentToLower:vector(packetBytes) ETV
attr interpolationmode none
attr recordingmode vector(packetBytes)
attr title "packets sent to lower layer, packetBytes"
vector 35 wGptpPcapRecorder.host2.wlan[0].radio transmissionState:vector ETV
attr interpolationmode sample-hold
attr recordingmode vector
attr source transmissionStateChanged
attr title "Radio transmission state"
vector 36 wGptpPcapRecorder.host2.wlan[0].mac.dcf packetSentToPeer:vector(packetBytes) ETV
attr interpolationmode none
attr recordingmode vector(packetBytes)
attr title "packets sent, packetBytes"
vector 37 wGptpPcapRecorder.host2.wlan[0].mac.dcf packetSentToPeerMulticast:vector(packetBytes) ETV
attr interpolationmode none
attr recordingmode vector(packetBytes)
attr source ieee80211Multicast(packetSentToPeer)
attr title "packets sent: multicast, packetBytes"
vector 38 wGptpPcapRecorder.host2.wlan[0].mac.dcf packetSentToPeerWithoutRetry:vector(packetBytes) ETV
attr interpolationmode none
attr recordingmode vector(packetBytes)
attr source ieee80211NotRetry(packetSentToPeer)
attr title "packets sent: without retry, packetBytes"
vector 39 wGptpPcapRecorder.host2.wlan[0].mac.dcf.channelAccess.inProgressFrames queueingTime:vector ETV
attr interpolationmode none
attr recordingmode vector
attr source queueingTime(packetDequeued)
attr title "queueing times"
vector 40 wGptpPcapRecorder.host1.wlan[0].mac packetReceivedFromLower:vector(packetBytes) ETV
attr interpolationmode none
attr recordingmode vector(packetBytes)
attr title "packets received from lower layer, packetBytes"
vector 41 wGptpPcapRecorder.host1.wlan[0].mac.dcf packetReceivedFromPeer:vector(packetBytes) ETV
attr interpolationmode none
attr recordingmode vector(packetBytes)
attr title "packets received, packetBytes"
vector 42 wGptpPcapRecorder.host1.wlan[0].mac.dcf packetReceivedFromPeerMulticast:vector(packetBytes) ETV
attr interpolationmode none
attr recordingmode vector(packetBytes)
attr source ieee80211Multicast(packetReceivedFromPeer)
attr title "packets received: multicast, packetBytes"
vector 43 wGptpPcapRecorder.host1.wlan[0].mac.dcf packetReceivedFromPeerWithoutRetry:vector(packetBytes) ETV
attr interpolationmode none
attr recordingmode vector(packetBytes)
attr source ieee80211NotRetry(packetReceivedFromPeer)
attr title "packets received: without retry, packetBytes"
vector 44 wGptpPcapRecorder.host1.wlan[0].mac packetSentToUpper:vector(packetBytes) ETV
attr interpolationmode none
attr recordingmode vector(packetBytes)
attr title "packets sent to upper layer, packetBytes"
vector 45 wGptpPcapRecorder.host1.wlan[0].mac packetReceivedFromUpper:vector(packetBytes) ETV
attr interpolationmode none
attr recordingmode vector(packetBytes)
attr title "packets received from upper layer, packetBytes"
vector 46 wGptpPcapRecorder.host1.wlan[0].mac.dcf.channelAccess.pendingQueue incomingPacketLengths:vector ETV
attr interpolationmode none
attr recordingmode vector
attr source packetLength(packetPushStarted)
attr title "incoming packet lengths"
attr unit b
vector 47 wGptpPcapRecorder.host1.wlan[0].mac.dcf.channelAccess.contention backoffPeriodGenerated:vector ETV
attr interpolationmode none
attr recordingmode vector
attr title "backoff periods"
vector 48 wGptpPcapRecorder.host1.wlan[0].mac.dcf.channelAccess.pendingQueue queueingTime:vector ETV
attr interpolationmode none
attr recordingmode vector
attr source queueingTime(packetPulled)
attr title "queueing times"
attr unit s
vector 49 wGptpPcapRecorder.host1.wlan[0].mac.dcf.channelAccess.pendingQueue outgoingPacketLengths:vector ETV
attr interpolationmode none
attr recordingmode vector
attr source packetLength(packetPulled)
attr title "outgoing packet lengths"
attr unit b
vector 50 wGptpPcapRecorder.host1.wlan[0].mac.dcf datarateSelected:vector ETV
attr interpolationmode none
attr recordingmode vector
attr title "datarates selected"
vector 51 wGptpPcapRecorder.host1.wlan[0].mac packetSentToLower:vector(packetBytes) ETV
attr interpolationmode none
attr recordingmode vector(packetBytes)
attr title "packets sent to lower layer, packetBytes"
vector 52 wGptpPcapRecorder.host1.wlan[0].radio transmissionState:vector ETV
attr interpolationmode sample-hold
attr recordingmode vector
attr source transmissionStateChanged
attr title "Radio transmission state"
vector 53 wGptpPcapRecorder.host1.wlan[0].mac.dcf packetSentToPeer:vector(packetBytes) ETV
attr interpolationmode none
attr recordingmode vector(packetBytes)
attr title "packets sent, packetBytes"
vector 54 wGptpPcapRecorder.host1.wlan[0].mac.dcf packetSentToPeerMulticast:vector(packetBytes) ETV
attr interpolationmode none
attr recordingmode vector(packetBytes)
attr source ieee80211Multicast(packetSentToPeer)
attr title "packets sent: multicast, packetBytes"
vector 55 wGptpPcapRecorder.host1.wlan[0].mac.dcf packetSentToPeerWithoutRetry:vector(packetBytes) ETV
attr interpolationmode none
attr recordingmode vector(packetBytes)
attr source ieee80211NotRetry(packetSentToPeer)
attr title "packets sent: without retry, packetBytes"
vector 56 wGptpPcapRecorder.host1.wlan[0].mac.dcf.channelAccess.inProgressFrames queueingTime:vector ETV
attr interpolationmode none
attr recordingmode vector
attr source queueingTime(packetDequeued)
attr title "queueing times"
vector 57 wGptpPcapRecorder.host2.wlan[0].mac packetReceivedFromLower:vector(packetBytes) ETV
attr interpolationmode none
attr recordingmode vector(packetBytes)
attr title "packets received from lower layer, packetBytes"
vector 58 wGptpPcapRecorder.host2.wlan[0].mac.dcf packetReceivedFromPeer:vector(packetBytes) ETV
attr interpolationmode none
attr recordingmode vector(packetBytes)
attr title "packets received, packetBytes"
vector 59 wGptpPcapRecorder.host2.wlan[0].mac.dcf packetReceivedFromPeerMulticast:vector(packetBytes) ETV
attr interpolationmode none
attr recordingmode vector(packetBytes)
attr source ieee80211Multicast(packetReceivedFromPeer)
attr title "packets received: multicast, packetBytes"
vector 60 wGptpPcapRecorder.host2.wlan[0].mac.dcf packetReceivedFromPeerWithoutRetry:vector(packetBytes) ETV
attr interpolationmode none
attr recordingmode vector(packetBytes)
attr source ieee80211NotRetry(packetReceivedFromPeer)
attr title "packets received: without retry, packetBytes"
vector 61 wGptpPcapRecorder.host2.wlan[0].mac packetSentToUpper:vector(packetBytes) ETV
attr interpolationmode none
attr recordingmode vector(packetBytes)
attr title "packets sent to upper layer, packetBytes"
vector 62 wGptpPcapRecorder.host2.gptp peerDelay:vector ETV
attr interpolationmode sample-hold
attr recordingmode vector
vector 63 wGptpPcapRecorder.host1.clock.oscillator driftRateChanged:vector ETV
attr interpolationmode sample-hold
attr recordingmode vector
attr title "Oscillator drift rate"
attr unit ppm
vector 64 wGptpPcapRecorder.host1.wlan[0].mac.dcf.channelAccess.pendingQueue incomingDataRate:vector ETV
attr interpolationmode linear
attr recordingmode vector
attr source throughput(packetPushStarted)
attr title "incoming datarate"
attr unit bps
vector 65 wGptpPcapRecorder.host1.wlan[0].mac.dcf.channelAccess.pendingQueue outgoingDataRate:vector ETV
attr interpolationmode linear
attr recordingmode vector
attr source throughput(packetPulled)
attr title "outgoing datarate"
attr unit bps
vector 66 wGptpPcapRecorder.host2.gptp timeDifference:vector ETV
attr interpolationmode linear
attr recordingmode vector
vector 67 wGptpPcapRecorder.host2.gptp rateRatio:vector ETV
attr interpolationmode sample-hold
attr recordingmode vector
vector 68 wGptpPcapRecorder.host2.gptp localTime:vector ETV
attr interpolationmode linear
attr recordingmode vector
vector 69 wGptpPcapRecorder.host1.tcp.conn-2 tcpRcvQueueBytes:vector ETV
attr interpolationmode sample-hold
attr recordingmode vector
vector 70 wGptpPcapRecorder.host1.tcp.conn-2 rcvAdv:vector ETV
attr interpolationmode sample-hold
attr recordingmode vector
vector 71 wGptpPcapRecorder.host1.tcp.conn-2 rcvWnd:vector ETV
attr interpolationmode sample-hold
attr recordingmode vector
vector 72 wGptpPcapRecorder.host1.tcp.conn-2 sndAck:vector ETV
attr interpolationmode sample-hold
attr recordingmode vector
vector 73 wGptpPcapRecorder.host1.ipv4.arp arpRequestSent:vector(packetBytes) ETV
attr recordingmode vector(packetBytes)
attr source arpRequestSent
attr title "ARP request sent, packetBytes"
vector 74 wGptpPcapRecorder.host1.wlan[0].mac.dcf packetSentToPeerBroadcast:vector(packetBytes) ETV
attr interpolationmode none
attr recordingmode vector(packetBytes)
attr source ieee80211Broadcast(packetSentToPeer)
attr title "packets sent: broadcast , packetBytes"
vector 75 wGptpPcapRecorder.host2.wlan[0].mac.dcf.channelAccess.pendingQueue incomingDataRate:vector ETV
attr interpolationmode linear
attr recordingmode vector
attr source throughput(packetPushStarted)
attr title "incoming datarate"
attr unit bps
vector 76 wGptpPcapRecorder.host2.wlan[0].mac.dcf.channelAccess.pendingQueue outgoingDataRate:vector ETV
attr interpolationmode linear
attr recordingmode vector
attr source throughput(packetPulled)
attr title "outgoing datarate"
attr unit bps
vector 77 wGptpPcapRecorder.host2.wlan[0].mac.dcf packetReceivedFromPeerBroadcast:vector(packetBytes) ETV
attr interpolationmode none
attr recordingmode vector(packetBytes)
attr source ieee80211Broadcast(packetReceivedFromPeer)
attr title "packets received: broadcast, packetBytes"
vector 78 wGptpPcapRecorder.host2.ipv4.arp arpReplySent:vector(packetBytes) ETV
attr recordingmode vector(packetBytes)
attr source arpReplySent
attr title "ARP replies sent, packetBytes"
vector 79 wGptpPcapRecorder.host2.wlan[0].mac.dcf packetSentToPeerUnicast:vector(packetBytes) ETV
attr interpolationmode none
attr recordingmode vector(packetBytes)
attr source ieee80211Unicast(packetSentToPeer)
attr title "packets sent: unicast, packetBytes"
vector 80 wGptpPcapRecorder.host2.wlan[0].mac.rx nav:vector ETV
attr interpolationmode linear
attr recordingmode vector
attr source navChanged
attr title "network allocation vector"
vector 81 wGptpPcapRecorder.host1.wlan[0].mac.dcf packetReceivedFromPeerUnicast:vector(packetBytes) ETV
attr interpolationmode none
attr recordingmode vector(packetBytes)
attr source ieee80211Unicast(packetReceivedFromPeer)
attr title "packets received: unicast, packetBytes"
vector 82 wGptpPcapRecorder.host1.wlan[0].mac.dcf packetSentToPeerUnicast:vector(packetBytes) ETV
attr interpolationmode none
attr recordingmode vector(packetBytes)
attr source ieee80211Unicast(packetSentToPeer)
attr title "packets sent: unicast, packetBytes"
vector 83 wGptpPcapRecorder.host2.wlan[0].mac.dcf packetReceivedFromPeerUnicast:vector(packetBytes) ETV
attr interpolationmode none
attr recordingmode vector(packetBytes)
attr source ieee80211Unicast(packetReceivedFromPeer)
attr title "packets received: unicast, packetBytes"
vector 84 wGptpPcapRecorder.host1.wlan[0].mac.rx nav:vector ETV
attr interpolationmode linear
attr recordingmode vector
attr source navChanged
attr title "network allocation vector"
vector 85 wGptpPcapRecorder.host2.tcp.conn-1 rcvSeq:vector ETV
attr interpolationmode sample-hold
attr recordingmode vector
vector 86 wGptpPcapRecorder.host2.tcp.conn-1 rcvAck:vector ETV
attr interpolationmode sample-hold
attr recordingmode vector
vector 87 wGptpPcapRecorder.host2.tcp.conn-1 tcpRcvPayloadBytes:vector ETV
attr interpolationmode sample-hold
attr recordingmode vector
vector 88 wGptpPcapRecorder.host2.tcp.conn-3 rcvAdv:vector ETV
attr interpolationmode sample-hold
attr recordingmode vector
vector 89 wGptpPcapRecorder.host2.tcp.conn-3 sndWnd:vector ETV
attr interpolationmode sample-hold
attr recordingmode vector
vector 90 wGptpPcapRecorder.host2.tcp.conn-3 tcpRcvQueueBytes:vector ETV
attr interpolationmode sample-hold
attr recordingmode vector
vector 91 wGptpPcapRecorder.host2.tcp.conn-3 rcvWnd:vector ETV
attr interpolationmode sample-hold
attr recordingmode vector
vector 92 wGptpPcapRecorder.host2.tcp.conn-3 sndAck:vector ETV
attr interpolationmode sample-hold
attr recordingmode vector
vector 93 wGptpPcapRecorder.host1.tcp.conn-2 rcvSeq:vector ETV
attr interpolationmode sample-hold
attr recordingmode vector
vector 94 wGptpPcapRecorder.host1.tcp.conn-2 rcvAck:vector ETV
attr interpolationmode sample-hold
attr recordingmode vector
vector 95 wGptpPcapRecorder.host1.tcp.conn-2 tcpRcvPayloadBytes:vector ETV
attr interpolationmode sample-hold
attr recordingmode vector
vector 96 wGptpPcapRecorder.host1.tcp.conn-2 sndWnd:vector ETV
attr interpolationmode sample-hold
attr recordingmode vector
vector 97 wGptpPcapRecorder.host1.app[0] packetSent:vector(packetBytes) ETV
attr interpolationmode none
attr recordingmode vector(packetBytes)
attr source packetSent
attr title "packets sent, packetBytes"
vector 98 wGptpPcapRecorder.host1.tcp.conn-2 sndNxt:vector ETV
attr interpolationmode sample-hold
attr recordingmode vector
vector 99 wGptpPcapRecorder.host1.tcp.conn-2 unacked:vector ETV
attr interpolationmode sample-hold
attr recordingmode vector
vector 100 wGptpPcapRecorder.host2.tcp.conn-3 rcvSeq:vector ETV
attr interpolationmode sample-hold
attr recordingmode vector
vector 101 wGptpPcapRecorder.host2.tcp.conn-3 rcvAck:vector ETV
attr interpolationmode sample-hold
attr recordingmode vector
vector 102 wGptpPcapRecorder.host2.tcp.conn-3 tcpRcvPayloadBytes:vector ETV
attr interpolationmode sample-hold
attr recordingmode vector
vector 103 wGptpPcapRecorder.host2.tcp.conn-3 unacked:vector ETV
attr interpolationmode sample-hold
attr recordingmode vector
vector 104 wGptpPcapRecorder.host2.tcp.conn-3 dupAcks:vector ETV
attr interpolationmode sample-hold
attr recordingmode vector
vector 105 wGptpPcapRecorder.host2.app[0] packetReceived:vector(packetBytes) ETV
attr interpolationmode none
attr recordingmode vector(packetBytes)
attr source packetReceived
attr title "packets received, packetBytes"
vector 106 wGptpPcapRecorder.host2.app[0] endToEndDelay:vector ETV
attr interpolationmode none
attr recordingmode vector
attr source dataAge(packetReceived)
attr title "end-to-end delay"
attr unit s
vector 107 wGptpPcapRecorder.host2.app[0] packetSent:vector(packetBytes) ETV
attr interpolationmode none
attr recordingmode vector(packetBytes)
attr source packetSent
attr title "packets sent, packetBytes"
vector 108 wGptpPcapRecorder.host2.tcp.conn-3 sndNxt:vector ETV
attr interpolationmode sample-hold
attr recordingmode vector
vector 109 wGptpPcapRecorder.host1.tcp.conn-2 rtt:vector ETV
attr interpolationmode sample-hold
attr recordingmode vector
vector 110 wGptpPcapRecorder.host1.tcp.conn-2 srtt:vector ETV
attr interpolationmode sample-hold
attr recordingmode vector
vector 111 wGptpPcapRecorder.host1.tcp.conn-2 rttvar:vector ETV
attr interpolationmode sample-hold
attr recordingmode vector
vector 112 wGptpPcapRecorder.host1.tcp.conn-2 rto:vector ETV
attr interpolationmode sample-hold
attr recordingmode vector
vector 113 wGptpPcapRecorder.host1.tcp.conn-2 cwnd:vector ETV
attr interpolationmode sample-hold
attr recordingmode vector
vector 114 wGptpPcapRecorder.host1.tcp.conn-2 ssthresh:vector ETV
attr interpolationmode sample-hold
attr recordingmode vector
vector 115 wGptpPcapRecorder.host1.tcp.conn-2 dupAcks:vector ETV
attr interpolationmode sample-hold
attr recordingmode vector
vector 116 wGptpPcapRecorder.host1.app[0] packetReceived:vector(packetBytes) ETV
attr interpolationmode none
attr recordingmode vector(packetBytes)
attr source packetReceived
attr title "packets received, packetBytes"
vector 117 wGptpPcapRecorder.host1.app[0] endToEndDelay:vector ETV
attr interpolationmode none
attr recordingmode vector
attr source dataAge(packetReceived)
attr title "end-to-end delay"
attr unit s
vector 118 wGptpPcapRecorder.host2.tcp.conn-3 rtt:vector ETV
attr interpolationmode sample-hold
attr recordingmode vector
vector 119 wGptpPcapRecorder.host2.tcp.conn-3 srtt:vector ETV
attr interpolationmode sample-hold
attr recordingmode vector
vector 120 wGptpPcapRecorder.host2.tcp.conn-3 rttvar:vector ETV
attr interpolationmode sample-hold
attr recordingmode vector
vector 121 wGptpPcapRecorder.host2.tcp.conn-3 rto:vector ETV
attr interpolationmode sample-hold
attr recordingmode vector
vector 122 wGptpPcapRecorder.host2.tcp.conn-3 cwnd:vector ETV
attr interpolationmode sample-hold
attr recordingmode vector
vector 123 wGptpPcapRecorder.host2.tcp.conn-3 ssthresh:vector ETV
attr interpolationmode sample-hold
attr recordingmode vector
vector 124 wGptpPcapRecorder.host2.wlan[0].mac.dcf packetSentToPeerWithRetry:vector(packetBytes) ETV
attr interpolationmode none
attr recordingmode vector(packetBytes)
attr source ieee80211Retry(packetSentToPeer)
attr title "packets sent: with retry, packetBytes"
vector 125 wGptpPcapRecorder.host1.wlan[0].mac.dcf packetReceivedFromPeerWithRetry:vector(packetBytes) ETV
attr interpolationmode none
attr recordingmode vector(packetBytes)
attr source ieee80211Retry(packetReceivedFromPeer)
attr title "packets received: with retry, packetBytes"
vector 126 wGptpPcapRecorder.host1.wlan[0].mac.dcf.recipientMacDataService packetDropDuplicateDetected:vector(packetBytes) ETV
attr interpolationmode none
attr recordingmode vector(packetBytes)
attr source packetDropReasonIsDuplicateDetected(packetDropped)
attr title "packet drops: duplicate detected, packetBytes"
vector 127 wGptpPcapRecorder.host1.wlan[0].mac.dcf packetDrop:vector(packetBytes) ETV
attr interpolationmode none
attr recordingmode vector(packetBytes)
attr source packetDropped
attr title "packet drops, packetBytes"
vector 128 wGptpPcapRecorder.host1.wlan[0].mac packetDrop:vector(packetBytes) ETV
attr interpolationmode none
attr recordingmode vector(packetBytes)
attr source packetDropped
attr title "packet drops, packetBytes"
vector 129 wGptpPcapRecorder.host1.wlan[0].mac packetDropDuplicateDetected:vector(packetBytes) ETV
attr interpolationmode none
attr recordingmode vector(packetBytes)
attr source packetDropReasonIsDuplicateDetected(packetDropped)
attr title "packet drops: duplicate detected, packetBytes"
vector 130 wGptpPcapRecorder.host1.wlan[0].mac.dcf packetSentToPeerWithRetry:vector(packetBytes) ETV
attr interpolationmode none
attr recordingmode vector(packetBytes)
attr source ieee80211Retry(packetSentToPeer)
attr title "packets sent: with retry, packetBytes"
vector 131 wGptpPcapRecorder.host2.wlan[0].mac.dcf packetReceivedFromPeerWithRetry:vector(packetBytes) ETV
attr interpolationmode none
attr recordingmode vector(packetBytes)
attr source ieee80211Retry(packetReceivedFromPeer)
attr title "packets received: with retry, packetBytes"
vector 132 wGptpPcapRecorder.host2.wlan[0].mac.dcf.recipientMacDataService packetDropDuplicateDetected:vector(packetBytes) ETV
attr interpolationmode none
attr recordingmode vector(packetBytes)
attr source packetDropReasonIsDuplicateDetected(packetDropped)
attr title "packet drops: duplicate detected, packetBytes"
vector 133 wGptpPcapRecorder.host2.wlan[0].mac.dcf packetDrop:vector(packetBytes) ETV
attr interpolationmode none
attr recordingmode vector(packetBytes)
attr source packetDropped
attr title "packet drops, packetBytes"
vector 134 wGptpPcapRecorder.host2.wlan[0].mac packetDrop:vector(packetBytes) ETV